 Q-Chem 5.3 (devel), Q-Chem, Inc., Pleasanton, CA (2020)
 Q-Chem 5.3.1 for Intel X86 EM64T Linux

User input:
--------------------------------------------------------------
$molecule
0 1
C         -8.72530       -3.99110       -5.87190
C         -8.20820       -2.57540       -6.07570
C         -7.04830       -2.20580       -5.14710
C         -7.45440       -2.13090       -3.67300
C         -6.29350       -1.76920       -2.74080
C         -5.76350       -0.34780       -2.95050
C         -4.73320        0.02960       -1.91830
C         -3.31800       -0.13320       -2.11300
C         -2.55740        0.26880       -1.02910
C         -1.11900        0.24680       -0.87510
N         -0.51370        0.65880        0.22040
C          0.85600        0.52810        0.09640
C          1.29600        0.00520       -1.11680
C          2.65460       -0.17940       -1.37180
C          3.60850        0.16080       -0.40420
N          4.97830        0.02870       -0.52750
C          5.58330        0.44450        0.56660
C          7.02160        0.42380        0.71930
C          7.78070        0.78840        1.81600
C          9.19940        0.63050        1.62220
C         10.20590        0.93960        2.70180
C         10.89770       -0.29810        3.28390
C          9.93220       -1.23130        4.02150
C         10.63340       -2.41080        4.70330
C         11.40650       -3.34970        3.77320
C         10.54600       -3.97830        2.68830
C          9.46810        0.15940        0.34500
C         10.74280       -0.13000       -0.25980
C         11.18890       -1.35700       -0.70650
C         12.50250       -1.28930       -1.25650
C         13.01750       -0.00670       -1.25230
C         14.29980        0.42490       -1.69500
C         14.49470        1.27240       -2.72460
C         15.90460        1.60070       -3.05780
O         16.08460        2.48060       -4.06760
O         16.85960        1.11540       -2.46700
C         13.44720        1.82670       -3.50190
N         12.67490        2.33480       -4.20250
S         11.91030        1.09020       -0.52510
S          8.03570       -0.10970       -0.55400
S          4.52920        1.01260        1.80350
C          3.16850        0.68430        0.80870
C          1.81000        0.86870        1.06380
S         -0.06470       -0.32200       -2.11180
S         -3.57030        0.84620        0.22910
C         -4.99860        0.56020       -0.66610
C         -6.28660        0.89000       -0.05580
C         -6.83040        0.07540        0.94280
C         -8.07220        0.38250        1.50860
C         -7.00090        2.01470       -0.48080
C         -8.24320        2.31980        0.08490
C         -8.80040        1.50890        1.08870
N        -10.08340        1.82360        1.67040
C        -11.16030        2.29270        0.83040
C        -12.01160        3.32810        1.25530
C        -13.05260        3.78300        0.44150
C        -13.26080        3.20960       -0.81060
C        -12.42960        2.18230       -1.25060
C        -11.38790        1.72810       -0.43740
C        -10.28930        1.67050        3.09160
C        -11.49380        1.14940        3.59690
C        -11.69240        0.99980        4.97210
C        -10.69040        1.36940        5.86590
C         -9.49000        1.88820        5.38690
C         -9.29090        2.03710        4.01180
H         -9.47800       -4.22810       -6.63070
H         -7.91520       -4.72200       -5.95900
H         -9.19630       -4.11030       -4.89200
H         -7.86530       -2.47830       -7.11280
H         -9.03160       -1.86330       -5.94670
H         -6.23310       -2.92880       -5.27120
H         -6.66210       -1.23300       -5.47120
H         -8.26600       -1.40400       -3.54770
H         -7.84670       -3.10210       -3.35120
H         -5.47870       -2.49350       -2.86680
H         -6.64420       -1.87930       -1.70680
H         -5.30890       -0.25960       -3.94440
H         -6.59270        0.36880       -2.92870
H         -2.89320       -0.53680       -3.02500
H          2.99030       -0.58780       -2.32100
H          7.35230        1.14960        2.74410
H         10.96450        1.62280        2.30360
H          9.71330        1.48910        3.51450
H         11.67150        0.03880        3.98490
H         11.41240       -0.84410        2.48710
H          9.16590       -1.60890        3.33600
H          9.40120       -0.65870        4.79240
H          9.87830       -2.99390        5.24540
H         11.32590       -2.02440        5.46140
H         11.84300       -4.15200        4.38050
H         12.24830       -2.82190        3.31180
H          9.68350       -4.49490        3.12100
H         10.18170       -3.22860        1.98000
H         11.13090       -4.71060        2.12240
H         10.60490       -2.26710       -0.63280
H         13.03690       -2.14740       -1.64820
H         15.15280       -0.00410       -1.17000
H         15.30390        2.85890       -4.51940
H          1.47390        1.27770        2.01270
H         -6.29510       -0.80820        1.28320
H         -8.47820       -0.27830        2.27120
H         -6.59260        2.66560       -1.25060
H         -8.76750        3.21140       -0.25140
H        -11.85570        3.80150        2.22190
H        -13.69670        4.58740        0.78660
H        -14.07090        3.56330       -1.44300
H        -12.59220        1.72970       -2.22520
H        -10.76230        0.91280       -0.79270
H        -12.28260        0.83780        2.91620
H        -12.62900        0.59090        5.34200
H        -10.84480        1.25330        6.93550
H         -8.70710        2.18150        6.08150
H         -8.35270        2.46090        3.66110
$end

$rem
jobtype opt
method PBE0
basis 6-31g*
$end
--------------------------------------------------------------

   16   -4443.4568330373      4.24e-09  Convergence criterion met
 Total energy in the final basis set =    -4443.4568330373
   12   -4443.4756123088      9.01e-09  Convergence criterion met
 Total energy in the final basis set =    -4443.4756123088
   12   -4443.4800185164      9.84e-09  Convergence criterion met
 Total energy in the final basis set =    -4443.4800185164
   12   -4443.4827420238      9.28e-09  Convergence criterion met
 Total energy in the final basis set =    -4443.4827420238
   12   -4443.4852573517      9.58e-09  Convergence criterion met
 Total energy in the final basis set =    -4443.4852573517
   12   -4443.4877364903      7.68e-09  Convergence criterion met
 Total energy in the final basis set =    -4443.4877364903
   12   -4443.4901289009      7.40e-09  Convergence criterion met
 Total energy in the final basis set =    -4443.4901289009
   12   -4443.4922534311      6.58e-09  Convergence criterion met
   10   -4443.4971107283      3.82e-09  Convergence criterion met
 Total energy in the final basis set =    -4443.4971107283
   10   -4443.4971137064      3.52e-09  Convergence criterion met
 Total energy in the final basis set =    -4443.4971137064
   10   -4443.4971155423      4.25e-09  Convergence criterion met
 Total energy in the final basis set =    -4443.4971155423
    8   -4443.4971189015      8.87e-09  Convergence criterion met
 Total energy in the final basis set =    -4443.4971189015
    8   -4443.4971176645      4.21e-09  Convergence criterion met
 Total energy in the final basis set =    -4443.4971176645
    8   -4443.4971195482      3.58e-09  Convergence criterion met
 Total energy in the final basis set =    -4443.4971195482

             Standard Nuclear Orientation (Angstroms)
    I     Atom           X                Y                Z
 ----------------------------------------------------------------
    1      C      -8.8131037025    -6.9283326882     3.8917143886
    2      C      -8.7365717018    -6.7537706932     2.3784759675
    3      C      -7.6797374735    -5.7514094483     1.9108590059
    4      C      -7.9329085503    -4.3173384222     2.3687690588
    5      C      -6.8621754820    -3.3125043180     1.9460158756
    6      C      -6.7598289326    -3.0955772282     0.4300746782
    7      C      -5.7447921153    -2.0406713383     0.0868531622
    8      C      -4.3490268211    -2.2878525853     0.1094923384
    9      C      -3.5776896508    -1.1695206239    -0.1091192872
   10      C      -2.1455374507    -1.0465205620    -0.1622576259
   11      N      -1.5256474049     0.0760246143    -0.3700713630
   12      C      -0.1653478600    -0.0971694543    -0.3721773653
   13      C       0.2804023224    -1.4325815213    -0.1513363277
   14      C       1.6210086496    -1.7734922607    -0.1250890845
   15      C       2.5463701290    -0.7450758733    -0.3266742326
   16      N       3.9069735726    -0.9167700523    -0.3320534119
   17      C       4.5226702811     0.2065203779    -0.5454028400
   18      C       5.9575759192     0.3201031424    -0.6016648609
   19      C       6.7373088112     1.4267799421    -0.8488914849
   20      C       8.1301063236     1.1776284327    -0.8186068700
   21      C       9.1417402023     2.2595749787    -1.0717340108
   22      C       9.6024424274     3.0089233069     0.1895444143
   23      C       8.5141689938     3.8607291462     0.8341239229
   24      C       8.9980122653     4.6661652171     2.0419469661
   25      C       9.4634160731     3.8359856985     3.2406360809
   26      C       8.3745463825     2.9584150231     3.8472002172
   27      C       8.3969540558    -0.1628373578    -0.5499420670
   28      C       9.6454508016    -0.8823384906    -0.4780145043
   29      C       9.8161698223    -2.2559218181    -0.6150990550
   30      C      11.1435166894    -2.6642697709    -0.4674211644
   31      C      12.0243460415    -1.6198322999    -0.2154565591
   32      C      13.4234871269    -1.7789709191    -0.0412674959
   33      C      14.4026287798    -0.8590025943     0.1932945161
   34      C      15.8064379753    -1.3600087870     0.3354997365
   35      O      16.7527359316    -0.4368035581     0.5636520804
   36      O      16.0865153195    -2.5298037134     0.2520842319
   37      C      14.1755025560     0.5364424251     0.3107418768
   38      N      14.0813840226     1.6933714044     0.4207817530
   39      S      11.1626778732    -0.1091156784    -0.1516626379
   40      S       6.9312649608    -1.0760883014    -0.3189642694
   41      S       3.4861517560     1.6217167985    -0.7631112917
   42      C       2.1009959413     0.5889222551    -0.5487174821
   43      C       0.7590815190     0.9303600135    -0.5738612931
   44      S      -1.1058196206    -2.4652924354     0.0576792666
   45      S      -4.5726518060     0.2247967174    -0.3567811907
   46      C      -6.0211829972    -0.7058237879    -0.1558295560
   47      C      -7.3213522659    -0.0324625759    -0.2529498561
   48      C      -7.6001306290     1.1185968550     0.4964749583
   49      C      -8.8275057195     1.7571062400     0.4091623931
   50      C      -8.3186035198    -0.5030152858    -1.1187261331
   51      C      -9.5429732610     0.1371304773    -1.2237623344
   52      C      -9.8224936425     1.2763646959    -0.4543217047
   53      N     -11.0704073203     1.9134183760    -0.5495692080
   54      C     -12.2392373364     1.1492221786    -0.7867432456
   55      C     -13.1737489906     1.5676914050    -1.7400433500
   56      C     -14.3248795740     0.8214700875    -1.9644532736
   57      C     -14.5532549584    -0.3559619457    -1.2565484487
   58      C     -13.6211534414    -0.7766029513    -0.3110099711
   59      C     -12.4757278047    -0.0276236775    -0.0675177442
   60      C     -11.1828439848     3.3156211382    -0.4027747059
   61      C     -12.2491723955     3.8624586696     0.3204615142
   62      C     -12.3727697869     5.2404495638     0.4517382710
   63      C     -11.4302317948     6.0934630274    -0.1167789315
   64      C     -10.3648220630     5.5506608890    -0.8312158794
   65      C     -10.2430392248     4.1745747747    -0.9846753512
   66      H      -9.5354416139    -7.7060607734     4.1625849039
   67      H      -7.8397641487    -7.2211942505     4.3043509012
   68      H      -9.1220526040    -6.0063709203     4.3960919171
   69      H      -8.5233930227    -7.7273337588     1.9176944331
   70      H      -9.7198806565    -6.4469867541     1.9945273237
   71      H      -6.6912213021    -6.0765099402     2.2699570168
   72      H      -7.6313429025    -5.7855335711     0.8141958677
   73      H      -8.9122139961    -3.9832736590     1.9934803946
   74      H      -8.0049329354    -4.2931619906     3.4636408258
   75      H      -5.8839536717    -3.6295498053     2.3348177789
   76      H      -7.0744750156    -2.3429136555     2.4145146153
   77      H      -6.4852685758    -4.0346869480    -0.0662020440
   78      H      -7.7466733956    -2.8157117392     0.0465382322
   79      H      -3.9268468525    -3.2718475329     0.2958070775
   80      H       1.9697046250    -2.7869624297     0.0416170364
   81      H       6.3225525274     2.4067697544    -1.0649396286
   82      H      10.0159119758     1.8405838777    -1.5835997669
   83      H       8.7005094920     2.9842305297    -1.7688433273
   84      H      10.4478184544     3.6522359638    -0.0902971663
   85      H       9.9983142134     2.2913573398     0.9188605384
   86      H       7.6675190052     3.2255883336     1.1285019502
   87      H       8.1203124553     4.5594216586     0.0812665406
   88      H       8.1844777912     5.3295105337     2.3682701020
   89      H       9.8189250696     5.3243707243     1.7239086376
   90      H       9.8399379322     4.5238489713     4.0090566650
   91      H      10.3222855770     3.2129916316     2.9562391383
   92      H       7.5095621013     3.5587441564     4.1553507384
   93      H       8.0160278459     2.2021116615     3.1397447390
   94      H       8.7429229526     2.4286642872     4.7323160371
   95      H       8.9963194697    -2.9294413746    -0.8394378792
   96      H      11.4787811626    -3.6929798248    -0.5518551080
   97      H      13.7898755975    -2.8036204231    -0.0997139001
   98      H      16.3684372657     0.4545012476     0.6023334526
   99      H       0.4099836852     1.9434884616    -0.7413279317
  100      H      -6.8507869940     1.4996342854     1.1858158507
  101      H      -9.0251471829     2.6315028626     1.0214212068
  102      H      -8.1120373972    -1.3617009449    -1.7517879184
  103      H     -10.2895049355    -0.2352020263    -1.9183770601
  104      H     -12.9904730291     2.4803252849    -2.2997623768
  105      H     -15.0417517394     1.1580708289    -2.7087239695
  106      H     -15.4507053434    -0.9401910746    -1.4389526798
  107      H     -13.7922939052    -1.6886700781     0.2548181154
  108      H     -11.7559776187    -0.3487887441     0.6800081848
  109      H     -12.9787717066     3.1990248171     0.7753990023
  110      H     -13.2073529119     5.6479719342     1.0162564279
  111      H     -11.5252710367     7.1697260597    -0.0056010730
  112      H      -9.6262395337     6.2035400181    -1.2889960166
  113      H      -9.4194309442     3.7568448678    -1.5563453756
 ----------------------------------------------------------------

    8   -4443.4971202932      4.73e-09  Convergence criterion met
 Total energy in the final basis set =    -4443.4971202932
 Final energy is   -4443.4971202932011
 **  OPTIMIZATION CONVERGED  **

                    Orbital Energies (a.u.)
 --------------------------------------------------------------

 Alpha MOs
 -- Occupied --
-89.0960 -89.0876 -89.0822 -89.0767 -89.0721 -19.2768 -19.2126 -14.4421
-14.4203 -14.4164 -14.4083 -10.3772 -10.3307 -10.3259 -10.3161 -10.3024
-10.3020 -10.3007 -10.2999 -10.2968 -10.2954 -10.2914 -10.2900 -10.2892
-10.2888 -10.2876 -10.2857 -10.2850 -10.2832 -10.2802 -10.2790 -10.2759
-10.2701 -10.2668 -10.2623 -10.2612 -10.2581 -10.2551 -10.2546 -10.2520
-10.2498 -10.2491 -10.2468 -10.2464 -10.2447 -10.2447 -10.2444 -10.2443
-10.2443 -10.2440 -10.2427 -10.2421 -10.2417 -10.2405 -10.2399 -10.2371
-10.2328 -10.2298 -10.2291 -10.2287 -10.2281 -10.2262 -10.2244 -10.2203
-10.2164  -8.0634  -8.0552  -8.0508  -8.0453  -8.0396  -6.0007  -5.9969
 -5.9936  -5.9926  -5.9889  -5.9881  -5.9853  -5.9848  -5.9826  -5.9805
 -5.9794  -5.9769  -5.9750  -5.9732  -5.9699  -1.1391  -1.0523  -1.0153
 -1.0068  -1.0066  -0.9552  -0.9494  -0.9316  -0.9259  -0.8927  -0.8883
 -0.8865  -0.8699  -0.8692  -0.8506  -0.8463  -0.8402  -0.8299  -0.8228
 -0.8128  -0.8103  -0.8054  -0.7899  -0.7893  -0.7865  -0.7766  -0.7752
 -0.7727  -0.7714  -0.7694  -0.7632  -0.7629  -0.7438  -0.7311  -0.7267
 -0.7178  -0.7011  -0.6847  -0.6738  -0.6684  -0.6559  -0.6552  -0.6472
 -0.6395  -0.6325  -0.6322  -0.6296  -0.6260  -0.6250  -0.6222  -0.6168
 -0.6116  -0.6060  -0.5950  -0.5833  -0.5789  -0.5736  -0.5692  -0.5682
 -0.5605  -0.5571  -0.5557  -0.5532  -0.5419  -0.5358  -0.5211  -0.5147
 -0.5128  -0.5033  -0.4957  -0.4890  -0.4879  -0.4807  -0.4787  -0.4780
 -0.4757  -0.4740  -0.4738  -0.4732  -0.4713  -0.4688  -0.4663  -0.4655
 -0.4631  -0.4604  -0.4593  -0.4567  -0.4540  -0.4498  -0.4481  -0.4459
 -0.4453  -0.4417  -0.4404  -0.4383  -0.4374  -0.4370  -0.4322  -0.4293
 -0.4251  -0.4219  -0.4199  -0.4170  -0.4120  -0.4098  -0.4092  -0.4035
 -0.4016  -0.3992  -0.3973  -0.3956  -0.3942  -0.3933  -0.3906  -0.3891
 -0.3880  -0.3871  -0.3848  -0.3794  -0.3762  -0.3756  -0.3740  -0.3722
 -0.3706  -0.3680  -0.3668  -0.3610  -0.3594  -0.3582  -0.3573  -0.3566
 -0.3540  -0.3513  -0.3502  -0.3443  -0.3405  -0.3399  -0.3321  -0.3309
 -0.3291  -0.3280  -0.3260  -0.3254  -0.3212  -0.3196  -0.3061  -0.3040
 -0.2969  -0.2960  -0.2936  -0.2918  -0.2816  -0.2764  -0.2761  -0.2756
 -0.2668  -0.2653  -0.2627  -0.2601  -0.2400  -0.2348  -0.2155  -0.1960

          Ground-State Mulliken Net Atomic Charges

     Atom                 Charge (a.u.)
  ----------------------------------------
      1 C                    -0.523243
      2 C                    -0.318284
      3 C                    -0.319433
      4 C                    -0.321999
      5 C                    -0.317322
      6 C                    -0.401037
      7 C                     0.152254
      8 C                    -0.180062
      9 C                    -0.230184
     10 C                     0.089350
     11 N                    -0.530921
     12 C                     0.304818
     13 C                    -0.198047
     14 C                    -0.207829
     15 C                     0.301536
     16 N                    -0.527857
     17 C                     0.086352
     18 C                    -0.224353
     19 C                    -0.184715
     20 C                     0.155101
     21 C                    -0.433334
     22 C                    -0.322679
     23 C                    -0.330556
     24 C                    -0.319781
     25 C                    -0.324931
     26 C                    -0.523787
     27 C                    -0.264477
     28 C                    -0.187672
     29 C                    -0.177852
     30 C                    -0.141010
     31 C                    -0.215664
     32 C                    -0.130684
     33 C                    -0.031477
     34 C                     0.641584
     35 O                    -0.598359
     36 O                    -0.461778
     37 C                     0.229185
     38 N                    -0.508821
     39 S                     0.404483
     40 S                     0.384736
     41 S                     0.298801
     42 C                    -0.198480
     43 C                    -0.209995
     44 S                     0.290925
     45 S                     0.364748
     46 C                    -0.316322
     47 C                     0.084105
     48 C                    -0.210456
     49 C                    -0.208033
     50 C                    -0.197802
     51 C                    -0.210416
     52 C                     0.288761
     53 N                    -0.674541
     54 C                     0.234817
     55 C                    -0.182202
     56 C                    -0.182494
     57 C                    -0.166409
     58 C                    -0.182447
     59 C                    -0.183389
     60 C                     0.254291
     61 C                    -0.190536
     62 C                    -0.181116
     63 C                    -0.167897
     64 C                    -0.181581
     65 C                    -0.191820
     66 H                     0.173183
     67 H                     0.169238
     68 H                     0.173340
     69 H                     0.165579
     70 H                     0.161749
     71 H                     0.157722
     72 H                     0.163921
     73 H                     0.159584
     74 H                     0.170043
     75 H                     0.165262
     76 H                     0.176827
     77 H                     0.180005
     78 H                     0.180577
     79 H                     0.191343
     80 H                     0.202793
     81 H                     0.201800
     82 H                     0.202724
     83 H                     0.186565
     84 H                     0.181944
     85 H                     0.190427
     86 H                     0.172940
     87 H                     0.157733
     88 H                     0.162284
     89 H                     0.164836
     90 H                     0.167914
     91 H                     0.172475
     92 H                     0.168545
     93 H                     0.173762
     94 H                     0.174307
     95 H                     0.212904
     96 H                     0.205647
     97 H                     0.237023
     98 H                     0.443996
     99 H                     0.203714
    100 H                     0.189403
    101 H                     0.195018
    102 H                     0.183566
    103 H                     0.193618
    104 H                     0.189196
    105 H                     0.175314
    106 H                     0.171648
    107 H                     0.174085
    108 H                     0.186578
    109 H                     0.188234
    110 H                     0.173951
    111 H                     0.170821
    112 H                     0.174745
    113 H                     0.189353
  ----------------------------------------
  Sum of atomic charges =     0.000000

                    Cartesian Multipole Moments
 -----------------------------------------------------------------
    Charge (ESU x 10^10)
                -0.0000
    Dipole Moment (Debye)
         X     -10.2596      Y       0.1320      Z      -0.6510
       Tot      10.2810
    Quadrupole Moments (Debye-Ang)
        XX    -488.4468     XY      18.9848     YY    -385.6695
        XZ     -11.1221     YZ      -1.7367     ZZ    -414.2960

 Total job time:  39861.73s(wall), 306343.57s(cpu)
        *  Thank you very much for using Q-Chem.  Have a nice day.  *
