 Q-Chem 5.3 (devel), Q-Chem, Inc., Pleasanton, CA (2020)
 Q-Chem 5.3.1 for Intel X86 EM64T Linux

User input:
--------------------------------------------------------------
$molecule
0 1
C         11.97840       -1.14300       -1.35160
C         11.53410        0.26740       -1.02620
C         12.57730        1.23530       -1.49770
O         10.29940        0.45630       -1.60900
B          9.30590        0.04100       -0.62390
O         10.02940       -0.24520        0.60740
C         11.22550        0.41250        0.44770
C         11.03010        1.86150        0.78430
C         12.33200       -0.17940        1.30460
C          7.75990        0.32720       -0.78800
C          7.16990        1.30530       -1.54340
C          5.83740        1.37120       -1.54120
C          5.16640        0.45310       -0.78180
S          6.42330       -0.47400       -0.09440
C          3.70060        0.32310       -0.61850
C          3.17710       -0.60060        0.14030
C          1.71220       -0.73000        0.30300
S          0.46340        0.20800       -0.39560
C          1.02590       -1.63820        1.05620
C         -0.30700       -1.56310        1.05000
C         -0.88670       -0.58420        0.29160
C         -2.31030       -0.26110        0.09110
C         -3.21790       -0.96800        0.69230
C         -4.65370       -0.73550        0.56460
C         -5.18430        0.26650       -0.21460
C         -6.56420        0.46490       -0.31730
C         -5.55390       -1.53360        1.23880
C         -6.93650       -1.34920        1.14740
C         -7.44000       -0.34210        0.36300
N         -8.82830       -0.13160        0.25070
C         -9.34920        1.18390        0.33460
C        -10.31330        1.62620       -0.56780
C        -10.80140        2.90690       -0.46430
C        -10.38260        3.79410        0.49990
C         -9.42760        3.36560        1.39880
C         -8.93400        2.08140        1.30000
C         -9.67760       -1.25010        0.05510
C         -9.39550       -2.25240       -0.84640
C        -10.26150       -3.32010       -0.99460
C        -11.42820       -3.41810       -0.25140
C        -11.71050       -2.41920        0.64790
C        -10.83670       -1.36020        0.78460
H         11.25660       -1.86360       -0.88580
H         11.84660       -1.26440       -2.46100
H         13.02050       -1.34680       -1.10950
H         12.44160        1.50150       -2.57320
H         12.56300        2.20320       -0.94010
H         13.57690        0.74870       -1.36410
H         11.97020        2.31520        1.17870
H         10.69220        2.38710       -0.12930
H         10.21630        1.91610        1.56410
H         11.89800       -0.38780        2.30440
H         13.14170        0.58290        1.34400
H         12.67570       -1.13110        0.89720
H          7.82250        2.00030       -2.12390
H          5.26470        2.12840       -2.12130
H          3.06110        1.00810       -1.13950
H          3.78750       -1.28350        0.66090
H          1.59090       -2.39860        1.64070
H         -0.96530       -2.25170        1.62670
H         -2.55950        0.54850       -0.54540
H         -2.90320       -1.78790        1.33440
H         -4.53170        0.91640       -0.76030
H         -6.89940        1.27990       -0.95480
H         -5.16330       -2.32660        1.85660
H         -7.57970       -2.02270        1.71150
H        -10.65750        0.94320       -1.33560
H        -11.55240        3.23580       -1.17550
H        -10.77230        4.79830        0.57280
H         -9.05760        4.01930        2.18180
H         -8.18240        1.77410        2.02350
H         -8.49600       -2.20870       -1.44200
H        -10.06810       -4.12200       -1.69350
H        -12.08390       -4.26880       -0.39350
H        -12.62140       -2.49980        1.22530
H        -11.07980       -0.59490        1.49210
$end

$rem
jobtype opt
method PBE0
basis 6-31g*
$end
--------------------------------------------------------------

   15   -2416.5262760696      5.62e-09  Convergence criterion met
 Total energy in the final basis set =    -2416.5262760696
   12   -2416.5813072824      4.59e-09  Convergence criterion met
 Total energy in the final basis set =    -2416.5813072824
   12   -2416.6091888338      5.47e-09  Convergence criterion met
 Total energy in the final basis set =    -2416.6091888338
   12   -2416.6199128832      3.98e-09  Convergence criterion met
 Total energy in the final basis set =    -2416.6199128832
   12   -2416.6247327121      3.47e-09  Convergence criterion met
 Total energy in the final basis set =    -2416.6247327121
   11   -2416.6277125740      7.49e-09  Convergence criterion met
 Total energy in the final basis set =    -2416.6277125740
   11   -2416.6297828915      6.40e-09  Convergence criterion met
 Total energy in the final basis set =    -2416.6297828915
   11   -2416.6314238742      5.33e-09  Convergence criterion met
   10   -2416.6357021846      7.21e-09  Convergence criterion met
 Total energy in the final basis set =    -2416.6357021846
   11   -2416.6357230032      5.52e-09  Convergence criterion met
 Total energy in the final basis set =    -2416.6357230032
   10   -2416.6357369856      4.06e-09  Convergence criterion met
 Total energy in the final basis set =    -2416.6357369856
   10   -2416.6357484859      6.73e-09  Convergence criterion met
 Total energy in the final basis set =    -2416.6357484859
   10   -2416.6357524132      8.69e-09  Convergence criterion met
 Total energy in the final basis set =    -2416.6357524132
    9   -2416.6357562765      6.64e-09  Convergence criterion met
 Total energy in the final basis set =    -2416.6357562765

             Standard Nuclear Orientation (Angstroms)
    I     Atom           X                Y                Z
 ----------------------------------------------------------------
    1      C      11.8077941960    -0.9280959488    -1.6623253919
    2      C      11.5957089582     0.2172928529    -0.6769184278
    3      C      12.7602765627     1.1893635861    -0.7442283646
    4      O      10.3945370264     0.9061687534    -1.0905689084
    5      B       9.3667122292     0.3727744429    -0.3551760650
    6      O       9.7888598066    -0.4377457968     0.6663692608
    7      C      11.2204274602    -0.2739001867     0.7615080627
    8      C      11.4770394933     0.7797013169     1.8349786345
    9      C      11.8349161620    -1.6019730125     1.1690542348
   10      C       7.8851891806     0.6519381549    -0.6637725444
   11      C       7.3599382057     1.3795820367    -1.7102542991
   12      C       5.9513436582     1.4296498007    -1.7172828923
   13      C       5.3761527917     0.7333004931    -0.6687860241
   14      S       6.6086896243     0.0226305587     0.3240805927
   15      C       3.9662244319     0.5921634632    -0.4186144718
   16      C       3.3984439251    -0.0995254884     0.5955002062
   17      C       1.9943181337    -0.2592026389     0.8454729358
   18      S       0.7485253171     0.4525816039    -0.1359229202
   19      C       1.4226224609    -0.9903172931     1.8709278599
   20      C       0.0159914103    -0.9781678959     1.8663293133
   21      C      -0.5237251316    -0.2387280052     0.8309874999
   22      C      -1.9000799114     0.0080284787     0.4772782332
   23      C      -2.9591028109    -0.6402642345     1.0102519763
   24      C      -4.3635699765    -0.4199081018     0.7084953068
   25      C      -4.8400842739     0.6464924452    -0.0742610365
   26      C      -6.1879572850     0.7990491913    -0.3448148756
   27      C      -5.3190983270    -1.3140728616     1.2181446229
   28      C      -6.6723935473    -1.1646185111     0.9634973160
   29      C      -7.1307201301    -0.1042305697     0.1714977334
   30      N      -8.5024126611     0.0543075756    -0.0995250363
   31      C      -9.0779887748     1.3449999036    -0.1192623136
   32      C     -10.0326623771     1.6838817390    -1.0859134321
   33      C     -10.5996159646     2.9528080808    -1.0941546791
   34      C     -10.2144063646     3.9085126271    -0.1568666537
   35      C      -9.2593466335     3.5755459876     0.8004415601
   36      C      -8.7011870056     2.3032818183     0.8298434249
   37      C      -9.3112584126    -1.0815146147    -0.3332001622
   38      C      -8.8419511049    -2.1299221655    -1.1337921374
   39      C      -9.6332941555    -3.2506827988    -1.3541811473
   40      C     -10.9080275849    -3.3371952420    -0.7993324958
   41      C     -11.3808628134    -2.2901119653    -0.0121437742
   42      C     -10.5899242891    -1.1728904547     0.2292929378
   43      H      10.9813928360    -1.6453195768    -1.6204968372
   44      H      11.8491343052    -0.5181984526    -2.6760564445
   45      H      12.7434139034    -1.4629477608    -1.4684762123
   46      H      12.9164220481     1.5010853399    -1.7818623570
   47      H      12.5743225365     2.0856204241    -0.1475890575
   48      H      13.6834692909     0.7163961418    -0.3906754596
   49      H      12.5478703415     0.9140531312     2.0199299672
   50      H      11.0479533435     1.7457856854     1.5505194917
   51      H      11.0022257586     0.4594720614     2.7673029215
   52      H      11.4941217776    -1.8721268639     2.1735586250
   53      H      12.9284284698    -1.5350141309     1.1886245887
   54      H      11.5450873195    -2.4049229334     0.4871623937
   55      H       7.9910255535     1.8596482318    -2.4511929946
   56      H       5.3595866072     1.9518056762    -2.4625034899
   57      H       3.3263116318     1.0990958251    -1.1411595598
   58      H       4.0409756149    -0.6092668402     1.3138704986
   59      H       2.0221100519    -1.5148109955     2.6084194164
   60      H      -0.5917330331    -1.4823763892     2.6098687492
   61      H      -2.0684849614     0.7650561240    -0.2869695314
   62      H      -2.7653881180    -1.4335276146     1.7320296015
   63      H      -4.1431557358     1.3720328757    -0.4848550545
   64      H      -6.5273816522     1.6268506769    -0.9601986750
   65      H      -4.9872482143    -2.1443207162     1.8380465204
   66      H      -7.3862520290    -1.8688457377     1.3803125575
   67      H     -10.3253291714     0.9470408573    -1.8281462447
   68      H     -11.3387841601     3.1993480226    -1.8519292276
   69      H     -10.6540077753     4.9016705108    -0.1723995401
   70      H      -8.9543645471     4.3071299177     1.5441638509
   71      H      -7.9691343521     2.0425262641     1.5885067943
   72      H      -7.8535899185    -2.0581831005    -1.5783763256
   73      H      -9.2540963821    -4.0558931010    -1.9779988413
   74      H     -11.5270213938    -4.2115931073    -0.9789021155
   75      H     -12.3711867036    -2.3467392256     0.4322102536
   76      H     -10.9562491955    -0.3645177968     0.8552517203
 ----------------------------------------------------------------

    8   -2416.6357568993      6.44e-09  Convergence criterion met
 Total energy in the final basis set =    -2416.6357568993
 Final energy is   -2416.6357568992598
 **  OPTIMIZATION CONVERGED  **

                    Orbital Energies (a.u.)
 --------------------------------------------------------------

 Alpha MOs
 -- Occupied --
-89.0622 -89.0566 -19.2269 -19.2264 -14.4373 -10.2985 -10.2982 -10.2826
-10.2809 -10.2809 -10.2752 -10.2725 -10.2708 -10.2502 -10.2484 -10.2482
-10.2474 -10.2447 -10.2430 -10.2423 -10.2419 -10.2419 -10.2411 -10.2410
-10.2408 -10.2407 -10.2405 -10.2395 -10.2385 -10.2384 -10.2383 -10.2381
-10.2380 -10.2379 -10.2367 -10.2362 -10.2362 -10.2270 -10.2265 -10.2244
-10.2241  -8.0308  -8.0247  -6.8062  -5.9679  -5.9646  -5.9618  -5.9609
 -5.9583  -5.9551  -1.0913  -1.0202  -1.0015  -0.9138  -0.9024  -0.8886
 -0.8835  -0.8665  -0.8358  -0.8317  -0.8156  -0.7848  -0.7838  -0.7757
 -0.7701  -0.7697  -0.7678  -0.7579  -0.7527  -0.7487  -0.7307  -0.7292
 -0.7045  -0.7011  -0.6643  -0.6500  -0.6433  -0.6320  -0.6286  -0.6224
 -0.6189  -0.6065  -0.5874  -0.5812  -0.5726  -0.5576  -0.5558  -0.5523
 -0.5515  -0.5389  -0.5364  -0.5194  -0.5132  -0.5103  -0.4962  -0.4925
 -0.4842  -0.4828  -0.4805  -0.4678  -0.4639  -0.4634  -0.4563  -0.4543
 -0.4500  -0.4467  -0.4361  -0.4357  -0.4345  -0.4336  -0.4332  -0.4209
 -0.4171  -0.4148  -0.4117  -0.4099  -0.4093  -0.4001  -0.3976  -0.3947
 -0.3939  -0.3879  -0.3866  -0.3837  -0.3833  -0.3820  -0.3783  -0.3767
 -0.3755  -0.3684  -0.3673  -0.3643  -0.3603  -0.3566  -0.3524  -0.3497
 -0.3479  -0.3466  -0.3445  -0.3391  -0.3356  -0.3226  -0.3188  -0.3018
 -0.2803  -0.2727  -0.2714  -0.2703  -0.2623  -0.2598  -0.2596  -0.2556
 -0.2367  -0.2017  -0.1796

          Ground-State Mulliken Net Atomic Charges

     Atom                 Charge (a.u.)
  ----------------------------------------
      1 C                    -0.533997
      2 C                     0.231370
      3 C                    -0.534957
      4 O                    -0.476144
      5 B                     0.571262
      6 O                    -0.476084
      7 C                     0.233258
      8 C                    -0.534115
      9 C                    -0.534790
     10 C                    -0.325697
     11 C                    -0.159478
     12 C                    -0.162376
     13 C                    -0.207427
     14 S                     0.312140
     15 C                    -0.166838
     16 C                    -0.164191
     17 C                    -0.196007
     18 S                     0.304781
     19 C                    -0.169495
     20 C                    -0.151528
     21 C                    -0.189941
     22 C                    -0.182095
     23 C                    -0.194629
     24 C                     0.133304
     25 C                    -0.217217
     26 C                    -0.195886
     27 C                    -0.235314
     28 C                    -0.196445
     29 C                     0.264186
     30 N                    -0.671815
     31 C                     0.255158
     32 C                    -0.191005
     33 C                    -0.181452
     34 C                    -0.168511
     35 C                    -0.181238
     36 C                    -0.192403
     37 C                     0.250940
     38 C                    -0.189239
     39 C                    -0.181817
     40 C                    -0.168077
     41 C                    -0.181923
     42 C                    -0.189730
     43 H                     0.188461
     44 H                     0.188609
     45 H                     0.172781
     46 H                     0.187082
     47 H                     0.188414
     48 H                     0.170903
     49 H                     0.172605
     50 H                     0.187891
     51 H                     0.190151
     52 H                     0.188083
     53 H                     0.170487
     54 H                     0.188742
     55 H                     0.188717
     56 H                     0.177276
     57 H                     0.185059
     58 H                     0.189755
     59 H                     0.181563
     60 H                     0.179520
     61 H                     0.174700
     62 H                     0.164647
     63 H                     0.172763
     64 H                     0.190902
     65 H                     0.171027
     66 H                     0.190328
     67 H                     0.188104
     68 H                     0.172734
     69 H                     0.169364
     70 H                     0.173273
     71 H                     0.188743
     72 H                     0.188665
     73 H                     0.173513
     74 H                     0.169488
     75 H                     0.172891
     76 H                     0.188222
  ----------------------------------------
  Sum of atomic charges =     0.000000

                    Cartesian Multipole Moments
 -----------------------------------------------------------------
    Charge (ESU x 10^10)
                -0.0000
    Dipole Moment (Debye)
         X       0.0348      Y      -0.4463      Z       0.2703
       Tot       0.5229
    Quadrupole Moments (Debye-Ang)
        XX    -183.3255     XY      -2.8301     YY    -247.2336
        XZ       2.9692     YZ      -5.8152     ZZ    -250.4186

 Total job time:  7797.91s(wall), 60127.93s(cpu)
        *  Thank you very much for using Q-Chem.  Have a nice day.  *
